+ 1 0 2 tcp 40 ------- 1 0.0 1.0 0 0
- 1 0 2 tcp 40 ------- 1 0.0 1.0 0 0
r 1.01016 0 2 tcp 40 ------- 1 0.0 1.0 0 0
+ 1.01016 2 3 tcp 40 ------- 1 0.0 1.0 0 0
- 1.01016 2 3 tcp 40 ------- 1 0.0 1.0 0 0
r 1.02032 2 3 tcp 40 ------- 1 0.0 1.0 0 0
+ 1.02032 3 1 tcp 40 ------- 1 0.0 1.0 0 0
- 1.02032 3 1 tcp 40 ------- 1 0.0 1.0 0 0
r 1.03048 3 1 tcp 40 ------- 1 0.0 1.0 0 0
+ 1.03048 1 3 ack 40 ------- 1 1.0 0.0 0 1
- 1.03048 1 3 ack 40 ------- 1 1.0 0.0 0 1
r 1.04064 1 3 ack 40 ------- 1 1.0 0.0 0 1
+ 1.04064 3 2 ack 40 ------- 1 1.0 0.0 0 1
- 1.04064 3 2 ack 40 ------- 1 1.0 0.0 0 1
r 1.0508 3 2 ack 40 ------- 1 1.0 0.0 0 1
+ 1.0508 2 0 ack 40 ------- 1 1.0 0.0 0 1
- 1.0508 2 0 ack 40 ------- 1 1.0 0.0 0 1
r 1.06096 2 0 ack 40 ------- 1 1.0 0.0 0 1
+ 1.06096 0 2 tcp 1040 ------- 1 0.0 1.0 1 2
- 1.06096 0 2 tcp 1040 ------- 1 0.0 1.0 1 2
+ 1.06096 0 2 tcp 1040 ------- 1 0.0 1.0 2 3
- 1.06512 0 2 tcp 1040 ------- 1 0.0 1.0 2 3
r 1.07512 0 2 tcp 1040 ------- 1 0.0 1.0 1 2
+ 1.07512 2 3 tcp 1040 ------- 1 0.0 1.0 1 2
- 1.07512 2 3 tcp 1040 ------- 1 0.0 1.0 1 2
r 1.07928 0 2 tcp 1040 ------- 1 0.0 1.0 2 3
+ 1.07928 2 3 tcp 1040 ------- 1 0.0 1.0 2 3
- 1.07928 2 3 tcp 1040 ------- 1 0.0 1.0 2 3
r 1.08928 2 3 tcp 1040 ------- 1 0.0 1.0 1 2
+ 1.08928 3 1 tcp 1040 ------- 1 0.0 1.0 1 2
- 1.08928 3 1 tcp 1040 ------- 1 0.0 1.0 1 2
r 1.09344 2 3 tcp 1040 ------- 1 0.0 1.0 2 3
+ 1.09344 3 1 tcp 1040 ------- 1 0.0 1.0 2 3
- 1.09344 3 1 tcp 1040 ------- 1 0.0 1.0 2 3
r 1.10344 3 1 tcp 1040 ------- 1 0.0 1.0 1 2
+ 1.10344 1 3 ack 40 ------- 1 1.0 0.0 1 4
- 1.10344 1 3 ack 40 ------- 1 1.0 0.0 1 4
r 1.1076 3 1 tcp 1040 ------- 1 0.0 1.0 2 3
+ 1.1076 1 3 ack 40 ------- 1 1.0 0.0 2 5
- 1.1076 1 3 ack 40 ------- 1 1.0 0.0 2 5
r 1.1136 1 3 ack 40 ------- 1 1.0 0.0 1 4
+ 1.1136 3 2 ack 40 ------- 1 1.0 0.0 1 4
- 1.1136 3 2 ack 40 ------- 1 1.0 0.0 1 4
r 1.11776 1 3 ack 40 ------- 1 1.0 0.0 2 5
+ 1.11776 3 2 ack 40 ------- 1 1.0 0.0 2 5
- 1.11776 3 2 ack 40 ------- 1 1.0 0.0 2 5
r 1.12376 3 2 ack 40 ------- 1 1.0 0.0 1 4
+ 1.12376 2 0 ack 40 ------- 1 1.0 0.0 1 4
- 1.12376 2 0 ack 40 ------- 1 1.0 0.0 1 4
r 1.12792 3 2 ack 40 ------- 1 1.0 0.0 2 5
+ 1.12792 2 0 ack 40 ------- 1 1.0 0.0 2 5
- 1.12792 2 0 ack 40 ------- 1 1.0 0.0 2 5
r 1.13392 2 0 ack 40 ------- 1 1.0 0.0 1 4
+ 1.13392 0 2 tcp 1040 ------- 1 0.0 1.0 3 6
- 1.13392 0 2 tcp 1040 ------- 1 0.0 1.0 3 6
+ 1.13392 0 2 tcp 1040 ------- 1 0.0 1.0 4 7
r 1.13808 2 0 ack 40 ------- 1 1.0 0.0 2 5
+ 1.13808 0 2 tcp 1040 ------- 1 0.0 1.0 5 8
+ 1.13808 0 2 tcp 1040 ------- 1 0.0 1.0 6 9
- 1.13808 0 2 tcp 1040 ------- 1 0.0 1.0 4 7
- 1.14224 0 2 tcp 1040 ------- 1 0.0 1.0 5 8
- 1.1464 0 2 tcp 1040 ------- 1 0.0 1.0 6 9
r 1.14808 0 2 tcp 1040 ------- 1 0.0 1.0 3 6
+ 1.14808 2 3 tcp 1040 ------- 1 0.0 1.0 3 6
- 1.14808 2 3 tcp 1040 ------- 1 0.0 1.0 3 6
r 1.15224 0 2 tcp 1040 ------- 1 0.0 1.0 4 7
+ 1.15224 2 3 tcp 1040 ------- 1 0.0 1.0 4 7
- 1.15224 2 3 tcp 1040 ------- 1 0.0 1.0 4 7
r 1.1564 0 2 tcp 1040 ------- 1 0.0 1.0 5 8
+ 1.1564 2 3 tcp 1040 ------- 1 0.0 1.0 5 8
- 1.1564 2 3 tcp 1040 ------- 1 0.0 1.0 5 8
r 1.16056 0 2 tcp 1040 ------- 1 0.0 1.0 6 9
+ 1.16056 2 3 tcp 1040 ------- 1 0.0 1.0 6 9
- 1.16056 2 3 tcp 1040 ------- 1 0.0 1.0 6 9
r 1.16224 2 3 tcp 1040 ------- 1 0.0 1.0 3 6
+ 1.16224 3 1 tcp 1040 ------- 1 0.0 1.0 3 6
- 1.16224 3 1 tcp 1040 ------- 1 0.0 1.0 3 6
r 1.1664 2 3 tcp 1040 ------- 1 0.0 1.0 4 7
+ 1.1664 3 1 tcp 1040 ------- 1 0.0 1.0 4 7
- 1.1664 3 1 tcp 1040 ------- 1 0.0 1.0 4 7
r 1.17056 2 3 tcp 1040 ------- 1 0.0 1.0 5 8
+ 1.17056 3 1 tcp 1040 ------- 1 0.0 1.0 5 8
- 1.17056 3 1 tcp 1040 ------- 1 0.0 1.0 5 8
r 1.17472 2 3 tcp 1040 ------- 1 0.0 1.0 6 9
+ 1.17472 3 1 tcp 1040 ------- 1 0.0 1.0 6 9
- 1.17472 3 1 tcp 1040 ------- 1 0.0 1.0 6 9
r 1.1764 3 1 tcp 1040 ------- 1 0.0 1.0 3 6
+ 1.1764 1 3 ack 40 ------- 1 1.0 0.0 3 10
- 1.1764 1 3 ack 40 ------- 1 1.0 0.0 3 10
r 1.18056 3 1 tcp 1040 ------- 1 0.0 1.0 4 7
+ 1.18056 1 3 ack 40 ------- 1 1.0 0.0 4 11
- 1.18056 1 3 ack 40 ------- 1 1.0 0.0 4 11
r 1.18472 3 1 tcp 1040 ------- 1 0.0 1.0 5 8
+ 1.18472 1 3 ack 40 ------- 1 1.0 0.0 5 12
- 1.18472 1 3 ack 40 ------- 1 1.0 0.0 5 12
r 1.18656 1 3 ack 40 ------- 1 1.0 0.0 3 10
+ 1.18656 3 2 ack 40 ------- 1 1.0 0.0 3 10
- 1.18656 3 2 ack 40 ------- 1 1.0 0.0 3 10
r 1.18888 3 1 tcp 1040 ------- 1 0.0 1.0 6 9
+ 1.18888 1 3 ack 40 ------- 1 1.0 0.0 6 13
- 1.18888 1 3 ack 40 ------- 1 1.0 0.0 6 13
r 1.19072 1 3 ack 40 ------- 1 1.0 0.0 4 11
+ 1.19072 3 2 ack 40 ------- 1 1.0 0.0 4 11
- 1.19072 3 2 ack 40 ------- 1 1.0 0.0 4 11
r 1.19488 1 3 ack 40 ------- 1 1.0 0.0 5 12
+ 1.19488 3 2 ack 40 ------- 1 1.0 0.0 5 12
- 1.19488 3 2 ack 40 ------- 1 1.0 0.0 5 12
r 1.19672 3 2 ack 40 ------- 1 1.0 0.0 3 10
+ 1.19672 2 0 ack 40 ------- 1 1.0 0.0 3 10
- 1.19672 2 0 ack 40 ------- 1 1.0 0.0 3 10
r 1.19904 1 3 ack 40 ------- 1 1.0 0.0 6 13
+ 1.19904 3 2 ack 40 ------- 1 1.0 0.0 6 13
- 1.19904 3 2 ack 40 ------- 1 1.0 0.0 6 13
r 1.20088 3 2 ack 40 ------- 1 1.0 0.0 4 11
+ 1.20088 2 0 ack 40 ------- 1 1.0 0.0 4 11
- 1.20088 2 0 ack 40 ------- 1 1.0 0.0 4 11
r 1.20504 3 2 ack 40 ------- 1 1.0 0.0 5 12
+ 1.20504 2 0 ack 40 ------- 1 1.0 0.0 5 12
- 1.20504 2 0 ack 40 ------- 1 1.0 0.0 5 12
r 1.20688 2 0 ack 40 ------- 1 1.0 0.0 3 10
+ 1.20688 0 2 tcp 1040 ------- 1 0.0 1.0 7 14
- 1.20688 0 2 tcp 1040 ------- 1 0.0 1.0 7 14
+ 1.20688 0 2 tcp 1040 ------- 1 0.0 1.0 8 15
r 1.2092 3 2 ack 40 ------- 1 1.0 0.0 6 13
+ 1.2092 2 0 ack 40 ------- 1 1.0 0.0 6 13
- 1.2092 2 0 ack 40 ------- 1 1.0 0.0 6 13
r 1.21104 2 0 ack 40 ------- 1 1.0 0.0 4 11
+ 1.21104 0 2 tcp 1040 ------- 1 0.0 1.0 9 16
+ 1.21104 0 2 tcp 1040 ------- 1 0.0 1.0 10 17
- 1.21104 0 2 tcp 1040 ------- 1 0.0 1.0 8 15
r 1.2152 2 0 ack 40 ------- 1 1.0 0.0 5 12
+ 1.2152 0 2 tcp 1040 ------- 1 0.0 1.0 11 18
+ 1.2152 0 2 tcp 1040 ------- 1 0.0 1.0 12 19
- 1.2152 0 2 tcp 1040 ------- 1 0.0 1.0 9 16
r 1.21936 2 0 ack 40 ------- 1 1.0 0.0 6 13
+ 1.21936 0 2 tcp 1040 ------- 1 0.0 1.0 13 20
+ 1.21936 0 2 tcp 1040 ------- 1 0.0 1.0 14 21
- 1.21936 0 2 tcp 1040 ------- 1 0.0 1.0 10 17
r 1.22104 0 2 tcp 1040 ------- 1 0.0 1.0 7 14
+ 1.22104 2 3 tcp 1040 ------- 1 0.0 1.0 7 14
- 1.22104 2 3 tcp 1040 ------- 1 0.0 1.0 7 14
- 1.22352 0 2 tcp 1040 ------- 1 0.0 1.0 11 18
r 1.2252 0 2 tcp 1040 ------- 1 0.0 1.0 8 15
+ 1.2252 2 3 tcp 1040 ------- 1 0.0 1.0 8 15
- 1.2252 2 3 tcp 1040 ------- 1 0.0 1.0 8 15
- 1.22768 0 2 tcp 1040 ------- 1 0.0 1.0 12 19
r 1.22936 0 2 tcp 1040 ------- 1 0.0 1.0 9 16
+ 1.22936 2 3 tcp 1040 ------- 1 0.0 1.0 9 16
- 1.22936 2 3 tcp 1040 ------- 1 0.0 1.0 9 16
- 1.23184 0 2 tcp 1040 ------- 1 0.0 1.0 13 20
r 1.23352 0 2 tcp 1040 ------- 1 0.0 1.0 10 17
+ 1.23352 2 3 tcp 1040 ------- 1 0.0 1.0 10 17
- 1.23352 2 3 tcp 1040 ------- 1 0.0 1.0 10 17
r 1.2352 2 3 tcp 1040 ------- 1 0.0 1.0 7 14
+ 1.2352 3 1 tcp 1040 ------- 1 0.0 1.0 7 14
- 1.2352 3 1 tcp 1040 ------- 1 0.0 1.0 7 14
- 1.236 0 2 tcp 1040 ------- 1 0.0 1.0 14 21
r 1.23768 0 2 tcp 1040 ------- 1 0.0 1.0 11 18
+ 1.23768 2 3 tcp 1040 ------- 1 0.0 1.0 11 18
- 1.23768 2 3 tcp 1040 ------- 1 0.0 1.0 11 18
r 1.23936 2 3 tcp 1040 ------- 1 0.0 1.0 8 15
+ 1.23936 3 1 tcp 1040 ------- 1 0.0 1.0 8 15
- 1.23936 3 1 tcp 1040 ------- 1 0.0 1.0 8 15
r 1.24184 0 2 tcp 1040 ------- 1 0.0 1.0 12 19
+ 1.24184 2 3 tcp 1040 ------- 1 0.0 1.0 12 19
- 1.24184 2 3 tcp 1040 ------- 1 0.0 1.0 12 19
r 1.24352 2 3 tcp 1040 ------- 1 0.0 1.0 9 16
+ 1.24352 3 1 tcp 1040 ------- 1 0.0 1.0 9 16
- 1.24352 3 1 tcp 1040 ------- 1 0.0 1.0 9 16
r 1.246 0 2 tcp 1040 ------- 1 0.0 1.0 13 20
+ 1.246 2 3 tcp 1040 ------- 1 0.0 1.0 13 20
- 1.246 2 3 tcp 1040 ------- 1 0.0 1.0 13 20
r 1.24768 2 3 tcp 1040 ------- 1 0.0 1.0 10 17
+ 1.24768 3 1 tcp 1040 ------- 1 0.0 1.0 10 17
- 1.24768 3 1 tcp 1040 ------- 1 0.0 1.0 10 17
r 1.24936 3 1 tcp 1040 ------- 1 0.0 1.0 7 14
+ 1.24936 1 3 ack 40 ------- 1 1.0 0.0 7 22
- 1.24936 1 3 ack 40 ------- 1 1.0 0.0 7 22
r 1.25016 0 2 tcp 1040 ------- 1 0.0 1.0 14 21
+ 1.25016 2 3 tcp 1040 ------- 1 0.0 1.0 14 21
- 1.25016 2 3 tcp 1040 ------- 1 0.0 1.0 14 21
r 1.25184 2 3 tcp 1040 ------- 1 0.0 1.0 11 18
+ 1.25184 3 1 tcp 1040 ------- 1 0.0 1.0 11 18
- 1.25184 3 1 tcp 1040 ------- 1 0.0 1.0 11 18
r 1.25352 3 1 tcp 1040 ------- 1 0.0 1.0 8 15
+ 1.25352 1 3 ack 40 ------- 1 1.0 0.0 8 23
- 1.25352 1 3 ack 40 ------- 1 1.0 0.0 8 23
r 1.256 2 3 tcp 1040 ------- 1 0.0 1.0 12 19
+ 1.256 3 1 tcp 1040 ------- 1 0.0 1.0 12 19
- 1.256 3 1 tcp 1040 ------- 1 0.0 1.0 12 19
r 1.25768 3 1 tcp 1040 ------- 1 0.0 1.0 9 16
+ 1.25768 1 3 ack 40 ------- 1 1.0 0.0 9 24
- 1.25768 1 3 ack 40 ------- 1 1.0 0.0 9 24
r 1.25952 1 3 ack 40 ------- 1 1.0 0.0 7 22
+ 1.25952 3 2 ack 40 ------- 1 1.0 0.0 7 22
- 1.25952 3 2 ack 40 ------- 1 1.0 0.0 7 22
r 1.26016 2 3 tcp 1040 ------- 1 0.0 1.0 13 20
+ 1.26016 3 1 tcp 1040 ------- 1 0.0 1.0 13 20
- 1.26016 3 1 tcp 1040 ------- 1 0.0 1.0 13 20
r 1.26184 3 1 tcp 1040 ------- 1 0.0 1.0 10 17
+ 1.26184 1 3 ack 40 ------- 1 1.0 0.0 10 25
- 1.26184 1 3 ack 40 ------- 1 1.0 0.0 10 25
r 1.26368 1 3 ack 40 ------- 1 1.0 0.0 8 23
+ 1.26368 3 2 ack 40 ------- 1 1.0 0.0 8 23
- 1.26368 3 2 ack 40 ------- 1 1.0 0.0 8 23
r 1.26432 2 3 tcp 1040 ------- 1 0.0 1.0 14 21
+ 1.26432 3 1 tcp 1040 ------- 1 0.0 1.0 14 21
- 1.26432 3 1 tcp 1040 ------- 1 0.0 1.0 14 21
r 1.266 3 1 tcp 1040 ------- 1 0.0 1.0 11 18
+ 1.266 1 3 ack 40 ------- 1 1.0 0.0 11 26
- 1.266 1 3 ack 40 ------- 1 1.0 0.0 11 26
r 1.26784 1 3 ack 40 ------- 1 1.0 0.0 9 24
+ 1.26784 3 2 ack 40 ------- 1 1.0 0.0 9 24
- 1.26784 3 2 ack 40 ------- 1 1.0 0.0 9 24
r 1.26968 3 2 ack 40 ------- 1 1.0 0.0 7 22
+ 1.26968 2 0 ack 40 ------- 1 1.0 0.0 7 22
- 1.26968 2 0 ack 40 ------- 1 1.0 0.0 7 22
r 1.27016 3 1 tcp 1040 ------- 1 0.0 1.0 12 19
+ 1.27016 1 3 ack 40 ------- 1 1.0 0.0 12 27
- 1.27016 1 3 ack 40 ------- 1 1.0 0.0 12 27
r 1.272 1 3 ack 40 ------- 1 1.0 0.0 10 25
+ 1.272 3 2 ack 40 ------- 1 1.0 0.0 10 25
- 1.272 3 2 ack 40 ------- 1 1.0 0.0 10 25
r 1.27384 3 2 ack 40 ------- 1 1.0 0.0 8 23
+ 1.27384 2 0 ack 40 ------- 1 1.0 0.0 8 23
- 1.27384 2 0 ack 40 ------- 1 1.0 0.0 8 23
r 1.27432 3 1 tcp 1040 ------- 1 0.0 1.0 13 20
+ 1.27432 1 3 ack 40 ------- 1 1.0 0.0 13 28
- 1.27432 1 3 ack 40 ------- 1 1.0 0.0 13 28
r 1.27616 1 3 ack 40 ------- 1 1.0 0.0 11 26
+ 1.27616 3 2 ack 40 ------- 1 1.0 0.0 11 26
- 1.27616 3 2 ack 40 ------- 1 1.0 0.0 11 26
r 1.278 3 2 ack 40 ------- 1 1.0 0.0 9 24
+ 1.278 2 0 ack 40 ------- 1 1.0 0.0 9 24
- 1.278 2 0 ack 40 ------- 1 1.0 0.0 9 24
r 1.27848 3 1 tcp 1040 ------- 1 0.0 1.0 14 21
+ 1.27848 1 3 ack 40 ------- 1 1.0 0.0 14 29
- 1.27848 1 3 ack 40 ------- 1 1.0 0.0 14 29
r 1.27984 2 0 ack 40 ------- 1 1.0 0.0 7 22
+ 1.27984 0 2 tcp 1040 ------- 1 0.0 1.0 15 30
- 1.27984 0 2 tcp 1040 ------- 1 0.0 1.0 15 30
+ 1.27984 0 2 tcp 1040 ------- 1 0.0 1.0 16 31
r 1.28032 1 3 ack 40 ------- 1 1.0 0.0 12 27
+ 1.28032 3 2 ack 40 ------- 1 1.0 0.0 12 27
- 1.28032 3 2 ack 40 ------- 1 1.0 0.0 12 27
r 1.28216 3 2 ack 40 ------- 1 1.0 0.0 10 25
+ 1.28216 2 0 ack 40 ------- 1 1.0 0.0 10 25
- 1.28216 2 0 ack 40 ------- 1 1.0 0.0 10 25
r 1.284 2 0 ack 40 ------- 1 1.0 0.0 8 23
+ 1.284 0 2 tcp 1040 ------- 1 0.0 1.0 17 32
+ 1.284 0 2 tcp 1040 ------- 1 0.0 1.0 18 33
- 1.284 0 2 tcp 1040 ------- 1 0.0 1.0 16 31
r 1.28448 1 3 ack 40 ------- 1 1.0 0.0 13 28
+ 1.28448 3 2 ack 40 ------- 1 1.0 0.0 13 28
- 1.28448 3 2 ack 40 ------- 1 1.0 0.0 13 28
r 1.28632 3 2 ack 40 ------- 1 1.0 0.0 11 26
+ 1.28632 2 0 ack 40 ------- 1 1.0 0.0 11 26
- 1.28632 2 0 ack 40 ------- 1 1.0 0.0 11 26
r 1.28816 2 0 ack 40 ------- 1 1.0 0.0 9 24
+ 1.28816 0 2 tcp 1040 ------- 1 0.0 1.0 19 34
+ 1.28816 0 2 tcp 1040 ------- 1 0.0 1.0 20 35
- 1.28816 0 2 tcp 1040 ------- 1 0.0 1.0 17 32
r 1.28864 1 3 ack 40 ------- 1 1.0 0.0 14 29
+ 1.28864 3 2 ack 40 ------- 1 1.0 0.0 14 29
- 1.28864 3 2 ack 40 ------- 1 1.0 0.0 14 29
r 1.29048 3 2 ack 40 ------- 1 1.0 0.0 12 27
+ 1.29048 2 0 ack 40 ------- 1 1.0 0.0 12 27
- 1.29048 2 0 ack 40 ------- 1 1.0 0.0 12 27
r 1.29232 2 0 ack 40 ------- 1 1.0 0.0 10 25
+ 1.29232 0 2 tcp 1040 ------- 1 0.0 1.0 21 36
+ 1.29232 0 2 tcp 1040 ------- 1 0.0 1.0 22 37
- 1.29232 0 2 tcp 1040 ------- 1 0.0 1.0 18 33
r 1.294 0 2 tcp 1040 ------- 1 0.0 1.0 15 30
+ 1.294 2 3 tcp 1040 ------- 1 0.0 1.0 15 30
- 1.294 2 3 tcp 1040 ------- 1 0.0 1.0 15 30
r 1.29464 3 2 ack 40 ------- 1 1.0 0.0 13 28
+ 1.29464 2 0 ack 40 ------- 1 1.0 0.0 13 28
- 1.29464 2 0 ack 40 ------- 1 1.0 0.0 13 28
r 1.29648 2 0 ack 40 ------- 1 1.0 0.0 11 26
+ 1.29648 0 2 tcp 1040 ------- 1 0.0 1.0 23 38
+ 1.29648 0 2 tcp 1040 ------- 1 0.0 1.0 24 39
- 1.29648 0 2 tcp 1040 ------- 1 0.0 1.0 19 34
r 1.29816 0 2 tcp 1040 ------- 1 0.0 1.0 16 31
+ 1.29816 2 3 tcp 1040 ------- 1 0.0 1.0 16 31
- 1.29816 2 3 tcp 1040 ------- 1 0.0 1.0 16 31
r 1.2988 3 2 ack 40 ------- 1 1.0 0.0 14 29
+ 1.2988 2 0 ack 40 ------- 1 1.0 0.0 14 29
- 1.2988 2 0 ack 40 ------- 1 1.0 0.0 14 29
r 1.30064 2 0 ack 40 ------- 1 1.0 0.0 12 27
+ 1.30064 0 2 tcp 1040 ------- 1 0.0 1.0 25 40
+ 1.30064 0 2 tcp 1040 ------- 1 0.0 1.0 26 41
- 1.30064 0 2 tcp 1040 ------- 1 0.0 1.0 20 35
r 1.30232 0 2 tcp 1040 ------- 1 0.0 1.0 17 32
+ 1.30232 2 3 tcp 1040 ------- 1 0.0 1.0 17 32
- 1.30232 2 3 tcp 1040 ------- 1 0.0 1.0 17 32
r 1.3048 2 0 ack 40 ------- 1 1.0 0.0 13 28
+ 1.3048 0 2 tcp 1040 ------- 1 0.0 1.0 27 42
+ 1.3048 0 2 tcp 1040 ------- 1 0.0 1.0 28 43
- 1.3048 0 2 tcp 1040 ------- 1 0.0 1.0 21 36
r 1.30648 0 2 tcp 1040 ------- 1 0.0 1.0 18 33
+ 1.30648 2 3 tcp 1040 ------- 1 0.0 1.0 18 33
- 1.30648 2 3 tcp 1040 ------- 1 0.0 1.0 18 33
r 1.30816 2 3 tcp 1040 ------- 1 0.0 1.0 15 30
+ 1.30816 3 1 tcp 1040 ------- 1 0.0 1.0 15 30
- 1.30816 3 1 tcp 1040 ------- 1 0.0 1.0 15 30
r 1.30896 2 0 ack 40 ------- 1 1.0 0.0 14 29
+ 1.30896 0 2 tcp 1040 ------- 1 0.0 1.0 29 44
+ 1.30896 0 2 tcp 1040 ------- 1 0.0 1.0 30 45
- 1.30896 0 2 tcp 1040 ------- 1 0.0 1.0 22 37
r 1.31064 0 2 tcp 1040 ------- 1 0.0 1.0 19 34
+ 1.31064 2 3 tcp 1040 ------- 1 0.0 1.0 19 34
- 1.31064 2 3 tcp 1040 ------- 1 0.0 1.0 19 34
r 1.31232 2 3 tcp 1040 ------- 1 0.0 1.0 16 31
+ 1.31232 3 1 tcp 1040 ------- 1 0.0 1.0 16 31
- 1.31232 3 1 tcp 1040 ------- 1 0.0 1.0 16 31
- 1.31312 0 2 tcp 1040 ------- 1 0.0 1.0 23 38
r 1.3148 0 2 tcp 1040 ------- 1 0.0 1.0 20 35
+ 1.3148 2 3 tcp 1040 ------- 1 0.0 1.0 20 35
- 1.3148 2 3 tcp 1040 ------- 1 0.0 1.0 20 35
r 1.31648 2 3 tcp 1040 ------- 1 0.0 1.0 17 32
+ 1.31648 3 1 tcp 1040 ------- 1 0.0 1.0 17 32
- 1.31648 3 1 tcp 1040 ------- 1 0.0 1.0 17 32
- 1.31728 0 2 tcp 1040 ------- 1 0.0 1.0 24 39
r 1.31896 0 2 tcp 1040 ------- 1 0.0 1.0 21 36
+ 1.31896 2 3 tcp 1040 ------- 1 0.0 1.0 21 36
- 1.31896 2 3 tcp 1040 ------- 1 0.0 1.0 21 36
r 1.32064 2 3 tcp 1040 ------- 1 0.0 1.0 18 33
+ 1.32064 3 1 tcp 1040 ------- 1 0.0 1.0 18 33
- 1.32064 3 1 tcp 1040 ------- 1 0.0 1.0 18 33
- 1.32144 0 2 tcp 1040 ------- 1 0.0 1.0 25 40
r 1.32232 3 1 tcp 1040 ------- 1 0.0 1.0 15 30
+ 1.32232 1 3 ack 40 ------- 1 1.0 0.0 15 46
- 1.32232 1 3 ack 40 ------- 1 1.0 0.0 15 46
r 1.32312 0 2 tcp 1040 ------- 1 0.0 1.0 22 37
+ 1.32312 2 3 tcp 1040 ------- 1 0.0 1.0 22 37
- 1.32312 2 3 tcp 1040 ------- 1 0.0 1.0 22 37
r 1.3248 2 3 tcp 1040 ------- 1 0.0 1.0 19 34
+ 1.3248 3 1 tcp 1040 ------- 1 0.0 1.0 19 34
- 1.3248 3 1 tcp 1040 ------- 1 0.0 1.0 19 34
- 1.3256 0 2 tcp 1040 ------- 1 0.0 1.0 26 41
r 1.32648 3 1 tcp 1040 ------- 1 0.0 1.0 16 31
+ 1.32648 1 3 ack 40 ------- 1 1.0 0.0 16 47
- 1.32648 1 3 ack 40 ------- 1 1.0 0.0 16 47
r 1.32728 0 2 tcp 1040 ------- 1 0.0 1.0 23 38
+ 1.32728 2 3 tcp 1040 ------- 1 0.0 1.0 23 38
- 1.32728 2 3 tcp 1040 ------- 1 0.0 1.0 23 38
r 1.32896 2 3 tcp 1040 ------- 1 0.0 1.0 20 35
+ 1.32896 3 1 tcp 1040 ------- 1 0.0 1.0 20 35
- 1.32896 3 1 tcp 1040 ------- 1 0.0 1.0 20 35
- 1.32976 0 2 tcp 1040 ------- 1 0.0 1.0 27 42
r 1.33064 3 1 tcp 1040 ------- 1 0.0 1.0 17 32
+ 1.33064 1 3 ack 40 ------- 1 1.0 0.0 17 48
- 1.33064 1 3 ack 40 ------- 1 1.0 0.0 17 48
r 1.33144 0 2 tcp 1040 ------- 1 0.0 1.0 24 39
+ 1.33144 2 3 tcp 1040 ------- 1 0.0 1.0 24 39
- 1.33144 2 3 tcp 1040 ------- 1 0.0 1.0 24 39
r 1.33248 1 3 ack 40 ------- 1 1.0 0.0 15 46
+ 1.33248 3 2 ack 40 ------- 1 1.0 0.0 15 46
- 1.33248 3 2 ack 40 ------- 1 1.0 0.0 15 46
r 1.33312 2 3 tcp 1040 ------- 1 0.0 1.0 21 36
+ 1.33312 3 1 tcp 1040 ------- 1 0.0 1.0 21 36
- 1.33312 3 1 tcp 1040 ------- 1 0.0 1.0 21 36
- 1.33392 0 2 tcp 1040 ------- 1 0.0 1.0 28 43
r 1.3348 3 1 tcp 1040 ------- 1 0.0 1.0 18 33
+ 1.3348 1 3 ack 40 ------- 1 1.0 0.0 18 49
- 1.3348 1 3 ack 40 ------- 1 1.0 0.0 18 49
r 1.3356 0 2 tcp 1040 ------- 1 0.0 1.0 25 40
+ 1.3356 2 3 tcp 1040 ------- 1 0.0 1.0 25 40
- 1.3356 2 3 tcp 1040 ------- 1 0.0 1.0 25 40
r 1.33664 1 3 ack 40 ------- 1 1.0 0.0 16 47
+ 1.33664 3 2 ack 40 ------- 1 1.0 0.0 16 47
- 1.33664 3 2 ack 40 ------- 1 1.0 0.0 16 47
r 1.33728 2 3 tcp 1040 ------- 1 0.0 1.0 22 37
+ 1.33728 3 1 tcp 1040 ------- 1 0.0 1.0 22 37
- 1.33728 3 1 tcp 1040 ------- 1 0.0 1.0 22 37
- 1.33808 0 2 tcp 1040 ------- 1 0.0 1.0 29 44
r 1.33896 3 1 tcp 1040 ------- 1 0.0 1.0 19 34
+ 1.33896 1 3 ack 40 ------- 1 1.0 0.0 19 50
- 1.33896 1 3 ack 40 ------- 1 1.0 0.0 19 50
r 1.33976 0 2 tcp 1040 ------- 1 0.0 1.0 26 41
+ 1.33976 2 3 tcp 1040 ------- 1 0.0 1.0 26 41
- 1.33976 2 3 tcp 1040 ------- 1 0.0 1.0 26 41
r 1.3408 1 3 ack 40 ------- 1 1.0 0.0 17 48
+ 1.3408 3 2 ack 40 ------- 1 1.0 0.0 17 48
- 1.3408 3 2 ack 40 ------- 1 1.0 0.0 17 48
r 1.34144 2 3 tcp 1040 ------- 1 0.0 1.0 23 38
+ 1.34144 3 1 tcp 1040 ------- 1 0.0 1.0 23 38
- 1.34144 3 1 tcp 1040 ------- 1 0.0 1.0 23 38
- 1.34224 0 2 tcp 1040 ------- 1 0.0 1.0 30 45
r 1.34264 3 2 ack 40 ------- 1 1.0 0.0 15 46
+ 1.34264 2 0 ack 40 ------- 1 1.0 0.0 15 46
- 1.34264 2 0 ack 40 ------- 1 1.0 0.0 15 46
r 1.34312 3 1 tcp 1040 ------- 1 0.0 1.0 20 35
+ 1.34312 1 3 ack 40 ------- 1 1.0 0.0 20 51
- 1.34312 1 3 ack 40 ------- 1 1.0 0.0 20 51
r 1.34392 0 2 tcp 1040 ------- 1 0.0 1.0 27 42
+ 1.34392 2 3 tcp 1040 ------- 1 0.0 1.0 27 42
- 1.34392 2 3 tcp 1040 ------- 1 0.0 1.0 27 42
r 1.34496 1 3 ack 40 ------- 1 1.0 0.0 18 49
+ 1.34496 3 2 ack 40 ------- 1 1.0 0.0 18 49
- 1.34496 3 2 ack 40 ------- 1 1.0 0.0 18 49
r 1.3456 2 3 tcp 1040 ------- 1 0.0 1.0 24 39
+ 1.3456 3 1 tcp 1040 ------- 1 0.0 1.0 24 39
- 1.3456 3 1 tcp 1040 ------- 1 0.0 1.0 24 39
r 1.3468 3 2 ack 40 ------- 1 1.0 0.0 16 47
+ 1.3468 2 0 ack 40 ------- 1 1.0 0.0 16 47
- 1.3468 2 0 ack 40 ------- 1 1.0 0.0 16 47
r 1.34728 3 1 tcp 1040 ------- 1 0.0 1.0 21 36
+ 1.34728 1 3 ack 40 ------- 1 1.0 0.0 21 52
- 1.34728 1 3 ack 40 ------- 1 1.0 0.0 21 52
r 1.34808 0 2 tcp 1040 ------- 1 0.0 1.0 28 43
+ 1.34808 2 3 tcp 1040 ------- 1 0.0 1.0 28 43
- 1.34808 2 3 tcp 1040 ------- 1 0.0 1.0 28 43
r 1.34912 1 3 ack 40 ------- 1 1.0 0.0 19 50
+ 1.34912 3 2 ack 40 ------- 1 1.0 0.0 19 50
- 1.34912 3 2 ack 40 ------- 1 1.0 0.0 19 50
r 1.34976 2 3 tcp 1040 ------- 1 0.0 1.0 25 40
+ 1.34976 3 1 tcp 1040 ------- 1 0.0 1.0 25 40
- 1.34976 3 1 tcp 1040 ------- 1 0.0 1.0 25 40
r 1.35096 3 2 ack 40 ------- 1 1.0 0.0 17 48
+ 1.35096 2 0 ack 40 ------- 1 1.0 0.0 17 48
- 1.35096 2 0 ack 40 ------- 1 1.0 0.0 17 48
r 1.35144 3 1 tcp 1040 ------- 1 0.0 1.0 22 37
+ 1.35144 1 3 ack 40 ------- 1 1.0 0.0 22 53
- 1.35144 1 3 ack 40 ------- 1 1.0 0.0 22 53
r 1.35224 0 2 tcp 1040 ------- 1 0.0 1.0 29 44
+ 1.35224 2 3 tcp 1040 ------- 1 0.0 1.0 29 44
- 1.35224 2 3 tcp 1040 ------- 1 0.0 1.0 29 44
r 1.3528 2 0 ack 40 ------- 1 1.0 0.0 15 46
+ 1.3528 0 2 tcp 1040 ------- 1 0.0 1.0 31 54
- 1.3528 0 2 tcp 1040 ------- 1 0.0 1.0 31 54
+ 1.3528 0 2 tcp 1040 ------- 1 0.0 1.0 32 55
r 1.35328 1 3 ack 40 ------- 1 1.0 0.0 20 51
+ 1.35328 3 2 ack 40 ------- 1 1.0 0.0 20 51
- 1.35328 3 2 ack 40 ------- 1 1.0 0.0 20 51
r 1.35392 2 3 tcp 1040 ------- 1 0.0 1.0 26 41
+ 1.35392 3 1 tcp 1040 ------- 1 0.0 1.0 26 41
- 1.35392 3 1 tcp 1040 ------- 1 0.0 1.0 26 41
r 1.35512 3 2 ack 40 ------- 1 1.0 0.0 18 49
+ 1.35512 2 0 ack 40 ------- 1 1.0 0.0 18 49
- 1.35512 2 0 ack 40 ------- 1 1.0 0.0 18 49
r 1.3556 3 1 tcp 1040 ------- 1 0.0 1.0 23 38
+ 1.3556 1 3 ack 40 ------- 1 1.0 0.0 23 56
- 1.3556 1 3 ack 40 ------- 1 1.0 0.0 23 56
r 1.3564 0 2 tcp 1040 ------- 1 0.0 1.0 30 45
+ 1.3564 2 3 tcp 1040 ------- 1 0.0 1.0 30 45
- 1.3564 2 3 tcp 1040 ------- 1 0.0 1.0 30 45
r 1.35696 2 0 ack 40 ------- 1 1.0 0.0 16 47
+ 1.35696 0 2 tcp 1040 ------- 1 0.0 1.0 33 57
+ 1.35696 0 2 tcp 1040 ------- 1 0.0 1.0 34 58
- 1.35696 0 2 tcp 1040 ------- 1 0.0 1.0 32 55
r 1.35744 1 3 ack 40 ------- 1 1.0 0.0 21 52
+ 1.35744 3 2 ack 40 ------- 1 1.0 0.0 21 52
- 1.35744 3 2 ack 40 ------- 1 1.0 0.0 21 52
r 1.35808 2 3 tcp 1040 ------- 1 0.0 1.0 27 42
+ 1.35808 3 1 tcp 1040 ------- 1 0.0 1.0 27 42
- 1.35808 3 1 tcp 1040 ------- 1 0.0 1.0 27 42
r 1.35928 3 2 ack 40 ------- 1 1.0 0.0 19 50
+ 1.35928 2 0 ack 40 ------- 1 1.0 0.0 19 50
- 1.35928 2 0 ack 40 ------- 1 1.0 0.0 19 50
r 1.35976 3 1 tcp 1040 ------- 1 0.0 1.0 24 39
+ 1.35976 1 3 ack 40 ------- 1 1.0 0.0 24 59
- 1.35976 1 3 ack 40 ------- 1 1.0 0.0 24 59
r 1.36112 2 0 ack 40 ------- 1 1.0 0.0 17 48
+ 1.36112 0 2 tcp 1040 ------- 1 0.0 1.0 35 60
+ 1.36112 0 2 tcp 1040 ------- 1 0.0 1.0 36 61
- 1.36112 0 2 tcp 1040 ------- 1 0.0 1.0 33 57
r 1.3616 1 3 ack 40 ------- 1 1.0 0.0 22 53
+ 1.3616 3 2 ack 40 ------- 1 1.0 0.0 22 53
- 1.3616 3 2 ack 40 ------- 1 1.0 0.0 22 53
r 1.36224 2 3 tcp 1040 ------- 1 0.0 1.0 28 43
+ 1.36224 3 1 tcp 1040 ------- 1 0.0 1.0 28 43
- 1.36224 3 1 tcp 1040 ------- 1 0.0 1.0 28 43
r 1.36344 3 2 ack 40 ------- 1 1.0 0.0 20 51
+ 1.36344 2 0 ack 40 ------- 1 1.0 0.0 20 51
- 1.36344 2 0 ack 40 ------- 1 1.0 0.0 20 51
r 1.36392 3 1 tcp 1040 ------- 1 0.0 1.0 25 40
+ 1.36392 1 3 ack 40 ------- 1 1.0 0.0 25 62
- 1.36392 1 3 ack 40 ------- 1 1.0 0.0 25 62
r 1.36528 2 0 ack 40 ------- 1 1.0 0.0 18 49
+ 1.36528 0 2 tcp 1040 ------- 1 0.0 1.0 37 63
+ 1.36528 0 2 tcp 1040 ------- 1 0.0 1.0 38 64
- 1.36528 0 2 tcp 1040 ------- 1 0.0 1.0 34 58
r 1.36576 1 3 ack 40 ------- 1 1.0 0.0 23 56
+ 1.36576 3 2 ack 40 ------- 1 1.0 0.0 23 56
- 1.36576 3 2 ack 40 ------- 1 1.0 0.0 23 56
r 1.3664 2 3 tcp 1040 ------- 1 0.0 1.0 29 44
+ 1.3664 3 1 tcp 1040 ------- 1 0.0 1.0 29 44
- 1.3664 3 1 tcp 1040 ------- 1 0.0 1.0 29 44
r 1.36696 0 2 tcp 1040 ------- 1 0.0 1.0 31 54
+ 1.36696 2 3 tcp 1040 ------- 1 0.0 1.0 31 54
- 1.36696 2 3 tcp 1040 ------- 1 0.0 1.0 31 54
r 1.3676 3 2 ack 40 ------- 1 1.0 0.0 21 52
+ 1.3676 2 0 ack 40 ------- 1 1.0 0.0 21 52
- 1.3676 2 0 ack 40 ------- 1 1.0 0.0 21 52
r 1.36808 3 1 tcp 1040 ------- 1 0.0 1.0 26 41
+ 1.36808 1 3 ack 40 ------- 1 1.0 0.0 26 65
- 1.36808 1 3 ack 40 ------- 1 1.0 0.0 26 65
r 1.36944 2 0 ack 40 ------- 1 1.0 0.0 19 50
+ 1.36944 0 2 tcp 1040 ------- 1 0.0 1.0 39 66
- 1.36944 0 2 tcp 1040 ------- 1 0.0 1.0 35 60
r 1.36992 1 3 ack 40 ------- 1 1.0 0.0 24 59
+ 1.36992 3 2 ack 40 ------- 1 1.0 0.0 24 59
- 1.36992 3 2 ack 40 ------- 1 1.0 0.0 24 59
r 1.37056 2 3 tcp 1040 ------- 1 0.0 1.0 30 45
+ 1.37056 3 1 tcp 1040 ------- 1 0.0 1.0 30 45
- 1.37056 3 1 tcp 1040 ------- 1 0.0 1.0 30 45
r 1.37112 0 2 tcp 1040 ------- 1 0.0 1.0 32 55
+ 1.37112 2 3 tcp 1040 ------- 1 0.0 1.0 32 55
- 1.37112 2 3 tcp 1040 ------- 1 0.0 1.0 32 55
r 1.37176 3 2 ack 40 ------- 1 1.0 0.0 22 53
+ 1.37176 2 0 ack 40 ------- 1 1.0 0.0 22 53
- 1.37176 2 0 ack 40 ------- 1 1.0 0.0 22 53
r 1.37224 3 1 tcp 1040 ------- 1 0.0 1.0 27 42
+ 1.37224 1 3 ack 40 ------- 1 1.0 0.0 27 67
- 1.37224 1 3 ack 40 ------- 1 1.0 0.0 27 67
r 1.3736 2 0 ack 40 ------- 1 1.0 0.0 20 51
+ 1.3736 0 2 tcp 1040 ------- 1 0.0 1.0 40 68
- 1.3736 0 2 tcp 1040 ------- 1 0.0 1.0 36 61
r 1.37408 1 3 ack 40 ------- 1 1.0 0.0 25 62
+ 1.37408 3 2 ack 40 ------- 1 1.0 0.0 25 62
- 1.37408 3 2 ack 40 ------- 1 1.0 0.0 25 62
r 1.37528 0 2 tcp 1040 ------- 1 0.0 1.0 33 57
+ 1.37528 2 3 tcp 1040 ------- 1 0.0 1.0 33 57
- 1.37528 2 3 tcp 1040 ------- 1 0.0 1.0 33 57
r 1.37592 3 2 ack 40 ------- 1 1.0 0.0 23 56
+ 1.37592 2 0 ack 40 ------- 1 1.0 0.0 23 56
- 1.37592 2 0 ack 40 ------- 1 1.0 0.0 23 56
r 1.3764 3 1 tcp 1040 ------- 1 0.0 1.0 28 43
+ 1.3764 1 3 ack 40 ------- 1 1.0 0.0 28 69
- 1.3764 1 3 ack 40 ------- 1 1.0 0.0 28 69
r 1.37776 2 0 ack 40 ------- 1 1.0 0.0 21 52
+ 1.37776 0 2 tcp 1040 ------- 1 0.0 1.0 41 70
- 1.37776 0 2 tcp 1040 ------- 1 0.0 1.0 37 63
r 1.37824 1 3 ack 40 ------- 1 1.0 0.0 26 65
+ 1.37824 3 2 ack 40 ------- 1 1.0 0.0 26 65
- 1.37824 3 2 ack 40 ------- 1 1.0 0.0 26 65
r 1.37944 0 2 tcp 1040 ------- 1 0.0 1.0 34 58
+ 1.37944 2 3 tcp 1040 ------- 1 0.0 1.0 34 58
- 1.37944 2 3 tcp 1040 ------- 1 0.0 1.0 34 58
r 1.38008 3 2 ack 40 ------- 1 1.0 0.0 24 59
+ 1.38008 2 0 ack 40 ------- 1 1.0 0.0 24 59
- 1.38008 2 0 ack 40 ------- 1 1.0 0.0 24 59
r 1.38056 3 1 tcp 1040 ------- 1 0.0 1.0 29 44
+ 1.38056 1 3 ack 40 ------- 1 1.0 0.0 29 71
- 1.38056 1 3 ack 40 ------- 1 1.0 0.0 29 71
r 1.38112 2 3 tcp 1040 ------- 1 0.0 1.0 31 54
+ 1.38112 3 1 tcp 1040 ------- 1 0.0 1.0 31 54
- 1.38112 3 1 tcp 1040 ------- 1 0.0 1.0 31 54
r 1.38192 2 0 ack 40 ------- 1 1.0 0.0 22 53
+ 1.38192 0 2 tcp 1040 ------- 1 0.0 1.0 42 72
- 1.38192 0 2 tcp 1040 ------- 1 0.0 1.0 38 64
r 1.3824 1 3 ack 40 ------- 1 1.0 0.0 27 67
+ 1.3824 3 2 ack 40 ------- 1 1.0 0.0 27 67
- 1.3824 3 2 ack 40 ------- 1 1.0 0.0 27 67
r 1.3836 0 2 tcp 1040 ------- 1 0.0 1.0 35 60
+ 1.3836 2 3 tcp 1040 ------- 1 0.0 1.0 35 60
- 1.3836 2 3 tcp 1040 ------- 1 0.0 1.0 35 60
r 1.38424 3 2 ack 40 ------- 1 1.0 0.0 25 62
+ 1.38424 2 0 ack 40 ------- 1 1.0 0.0 25 62
- 1.38424 2 0 ack 40 ------- 1 1.0 0.0 25 62
r 1.38472 3 1 tcp 1040 ------- 1 0.0 1.0 30 45
+ 1.38472 1 3 ack 40 ------- 1 1.0 0.0 30 73
- 1.38472 1 3 ack 40 ------- 1 1.0 0.0 30 73
r 1.38528 2 3 tcp 1040 ------- 1 0.0 1.0 32 55
+ 1.38528 3 1 tcp 1040 ------- 1 0.0 1.0 32 55
- 1.38528 3 1 tcp 1040 ------- 1 0.0 1.0 32 55
r 1.38608 2 0 ack 40 ------- 1 1.0 0.0 23 56
+ 1.38608 0 2 tcp 1040 ------- 1 0.0 1.0 43 74
- 1.38608 0 2 tcp 1040 ------- 1 0.0 1.0 39 66
r 1.38656 1 3 ack 40 ------- 1 1.0 0.0 28 69
+ 1.38656 3 2 ack 40 ------- 1 1.0 0.0 28 69
- 1.38656 3 2 ack 40 ------- 1 1.0 0.0 28 69
r 1.38776 0 2 tcp 1040 ------- 1 0.0 1.0 36 61
+ 1.38776 2 3 tcp 1040 ------- 1 0.0 1.0 36 61
- 1.38776 2 3 tcp 1040 ------- 1 0.0 1.0 36 61
r 1.3884 3 2 ack 40 ------- 1 1.0 0.0 26 65
+ 1.3884 2 0 ack 40 ------- 1 1.0 0.0 26 65
- 1.3884 2 0 ack 40 ------- 1 1.0 0.0 26 65
r 1.38944 2 3 tcp 1040 ------- 1 0.0 1.0 33 57
+ 1.38944 3 1 tcp 1040 ------- 1 0.0 1.0 33 57
- 1.38944 3 1 tcp 1040 ------- 1 0.0 1.0 33 57
r 1.39024 2 0 ack 40 ------- 1 1.0 0.0 24 59
+ 1.39024 0 2 tcp 1040 ------- 1 0.0 1.0 44 75
- 1.39024 0 2 tcp 1040 ------- 1 0.0 1.0 40 68
r 1.39072 1 3 ack 40 ------- 1 1.0 0.0 29 71
+ 1.39072 3 2 ack 40 ------- 1 1.0 0.0 29 71
- 1.39072 3 2 ack 40 ------- 1 1.0 0.0 29 71
r 1.39192 0 2 tcp 1040 ------- 1 0.0 1.0 37 63
+ 1.39192 2 3 tcp 1040 ------- 1 0.0 1.0 37 63
- 1.39192 2 3 tcp 1040 ------- 1 0.0 1.0 37 63
r 1.39256 3 2 ack 40 ------- 1 1.0 0.0 27 67
+ 1.39256 2 0 ack 40 ------- 1 1.0 0.0 27 67
- 1.39256 2 0 ack 40 ------- 1 1.0 0.0 27 67
r 1.3936 2 3 tcp 1040 ------- 1 0.0 1.0 34 58
+ 1.3936 3 1 tcp 1040 ------- 1 0.0 1.0 34 58
- 1.3936 3 1 tcp 1040 ------- 1 0.0 1.0 34 58
r 1.3944 2 0 ack 40 ------- 1 1.0 0.0 25 62
+ 1.3944 0 2 tcp 1040 ------- 1 0.0 1.0 45 76
- 1.3944 0 2 tcp 1040 ------- 1 0.0 1.0 41 70
r 1.39488 1 3 ack 40 ------- 1 1.0 0.0 30 73
+ 1.39488 3 2 ack 40 ------- 1 1.0 0.0 30 73
- 1.39488 3 2 ack 40 ------- 1 1.0 0.0 30 73
r 1.39528 3 1 tcp 1040 ------- 1 0.0 1.0 31 54
+ 1.39528 1 3 ack 40 ------- 1 1.0 0.0 31 77
- 1.39528 1 3 ack 40 ------- 1 1.0 0.0 31 77
r 1.39608 0 2 tcp 1040 ------- 1 0.0 1.0 38 64
+ 1.39608 2 3 tcp 1040 ------- 1 0.0 1.0 38 64
- 1.39608 2 3 tcp 1040 ------- 1 0.0 1.0 38 64
r 1.39672 3 2 ack 40 ------- 1 1.0 0.0 28 69
+ 1.39672 2 0 ack 40 ------- 1 1.0 0.0 28 69
- 1.39672 2 0 ack 40 ------- 1 1.0 0.0 28 69
r 1.39776 2 3 tcp 1040 ------- 1 0.0 1.0 35 60
+ 1.39776 3 1 tcp 1040 ------- 1 0.0 1.0 35 60
- 1.39776 3 1 tcp 1040 ------- 1 0.0 1.0 35 60
r 1.39856 2 0 ack 40 ------- 1 1.0 0.0 26 65
+ 1.39856 0 2 tcp 1040 ------- 1 0.0 1.0 46 78
- 1.39856 0 2 tcp 1040 ------- 1 0.0 1.0 42 72
r 1.39944 3 1 tcp 1040 ------- 1 0.0 1.0 32 55
+ 1.39944 1 3 ack 40 ------- 1 1.0 0.0 32 79
- 1.39944 1 3 ack 40 ------- 1 1.0 0.0 32 79
r 1.40024 0 2 tcp 1040 ------- 1 0.0 1.0 39 66
+ 1.40024 2 3 tcp 1040 ------- 1 0.0 1.0 39 66
- 1.40024 2 3 tcp 1040 ------- 1 0.0 1.0 39 66
r 1.40088 3 2 ack 40 ------- 1 1.0 0.0 29 71
+ 1.40088 2 0 ack 40 ------- 1 1.0 0.0 29 71
- 1.40088 2 0 ack 40 ------- 1 1.0 0.0 29 71
r 1.40192 2 3 tcp 1040 ------- 1 0.0 1.0 36 61
+ 1.40192 3 1 tcp 1040 ------- 1 0.0 1.0 36 61
- 1.40192 3 1 tcp 1040 ------- 1 0.0 1.0 36 61
r 1.40272 2 0 ack 40 ------- 1 1.0 0.0 27 67
+ 1.40272 0 2 tcp 1040 ------- 1 0.0 1.0 47 80
- 1.40272 0 2 tcp 1040 ------- 1 0.0 1.0 43 74
r 1.4036 3 1 tcp 1040 ------- 1 0.0 1.0 33 57
+ 1.4036 1 3 ack 40 ------- 1 1.0 0.0 33 81
- 1.4036 1 3 ack 40 ------- 1 1.0 0.0 33 81
r 1.4044 0 2 tcp 1040 ------- 1 0.0 1.0 40 68
+ 1.4044 2 3 tcp 1040 ------- 1 0.0 1.0 40 68
- 1.4044 2 3 tcp 1040 ------- 1 0.0 1.0 40 68
r 1.40504 3 2 ack 40 ------- 1 1.0 0.0 30 73
+ 1.40504 2 0 ack 40 ------- 1 1.0 0.0 30 73
- 1.40504 2 0 ack 40 ------- 1 1.0 0.0 30 73
r 1.40544 1 3 ack 40 ------- 1 1.0 0.0 31 77
+ 1.40544 3 2 ack 40 ------- 1 1.0 0.0 31 77
- 1.40544 3 2 ack 40 ------- 1 1.0 0.0 31 77
r 1.40608 2 3 tcp 1040 ------- 1 0.0 1.0 37 63
+ 1.40608 3 1 tcp 1040 ------- 1 0.0 1.0 37 63
- 1.40608 3 1 tcp 1040 ------- 1 0.0 1.0 37 63
r 1.40688 2 0 ack 40 ------- 1 1.0 0.0 28 69
+ 1.40688 0 2 tcp 1040 ------- 1 0.0 1.0 48 82
- 1.40688 0 2 tcp 1040 ------- 1 0.0 1.0 44 75
r 1.40776 3 1 tcp 1040 ------- 1 0.0 1.0 34 58
+ 1.40776 1 3 ack 40 ------- 1 1.0 0.0 34 83
- 1.40776 1 3 ack 40 ------- 1 1.0 0.0 34 83
r 1.40856 0 2 tcp 1040 ------- 1 0.0 1.0 41 70
+ 1.40856 2 3 tcp 1040 ------- 1 0.0 1.0 41 70
- 1.40856 2 3 tcp 1040 ------- 1 0.0 1.0 41 70
r 1.4096 1 3 ack 40 ------- 1 1.0 0.0 32 79
+ 1.4096 3 2 ack 40 ------- 1 1.0 0.0 32 79
- 1.4096 3 2 ack 40 ------- 1 1.0 0.0 32 79